CPPF_pubchem_GMX.gro created by acpype (v: 2023.10.27) on Thu Apr 16 19:59:33 2026
   32
    1  MOL  CL1    1  43.994  38.912  35.502
    1  MOL   O1    2  43.681  38.523  35.642
    1  MOL   O2    3  43.588  38.269  35.869
    1  MOL   N1    4  43.768  38.421  35.876
    1  MOL   N2    5  43.833  38.246  36.193
    1  MOL   C1    6  43.620  38.558  35.527
    1  MOL   C2    7  43.681  38.668  35.455
    1  MOL   C3    8  43.609  38.420  35.693
    1  MOL   C4    9  43.510  38.480  35.503
    1  MOL   C5   10  43.503  38.389  35.612
    1  MOL   C6   11  43.794  38.730  35.507
    1  MOL   C7   12  43.627  38.712  35.335
    1  MOL   C8   13  43.653  38.363  35.817
    1  MOL   C9   14  43.829  38.387  35.997
    1  MOL  C10   15  43.854  38.836  35.438
    1  MOL  C11   16  43.685  38.818  35.266
    1  MOL  C12   17  43.799  38.880  35.318
    1  MOL  C13   18  43.943  38.453  36.041
    1  MOL  C14   19  43.778  38.284  36.076
    1  MOL  C15   20  44.001  38.416  36.162
    1  MOL  C16   21  43.943  38.314  36.233
    1  MOL   H1   22  43.443  38.484  35.418
    1  MOL   H2   23  43.430  38.311  35.628
    1  MOL   H3   24  43.839  38.697  35.601
    1  MOL   H4   25  43.538  38.666  35.292
    1  MOL   H5   26  43.812  38.497  35.826
    1  MOL   H6   27  43.643  38.852  35.172
    1  MOL   H7   28  43.845  38.963  35.263
    1  MOL   H8   29  43.986  38.534  35.983
    1  MOL   H9   30  43.692  38.226  36.052
    1  MOL  H10   31  44.089  38.467  36.198
    1  MOL  H11   32  43.985  38.282  36.328
0.00000   0.00000   0.00000
