CPPF_pubchem_GMX.gro created by acpype (v: 2023.10.27) on Thu Apr 16 19:59:33 2026
 32
    1  MOL  CL1    1   0.348   0.366   0.001
    1  MOL   O1    2   0.070  -0.072   0.001
    1  MOL   O2    3  -0.241  -0.239  -0.000
    1  MOL   N1    4  -0.192  -0.009   0.003
    1  MOL   N2    5  -0.559   0.014  -0.003
    1  MOL   C1    6   0.194  -0.126  -0.000
    1  MOL   C2    7   0.303  -0.031  -0.000
    1  MOL   C3    8  -0.017  -0.176   0.001
    1  MOL   C4    9   0.188  -0.263  -0.001
    1  MOL   C5   10   0.050  -0.296   0.000
    1  MOL   C6   11   0.276   0.105   0.000
    1  MOL   C7   12   0.435  -0.076  -0.001
    1  MOL   C8   13  -0.157  -0.146   0.002
    1  MOL   C9   14  -0.320   0.047   0.001
    1  MOL  C10   15   0.381   0.197  -0.000
    1  MOL  C11   16   0.540   0.015  -0.002
    1  MOL  C12   17   0.513   0.152  -0.001
    1  MOL  C13   18  -0.338   0.185   0.002
    1  MOL  C14   19  -0.433  -0.034  -0.001
    1  MOL  C15   20  -0.467   0.237   0.000
    1  MOL  C16   21  -0.573   0.149  -0.002
    1  MOL   H1   22   0.271  -0.333  -0.001
    1  MOL   H2   23   0.006  -0.395   0.000
    1  MOL   H3   24   0.174   0.143   0.001
    1  MOL   H4   25   0.459  -0.182  -0.002
    1  MOL   H5   26  -0.116   0.058   0.004
    1  MOL   H6   27   0.643  -0.020  -0.002
    1  MOL   H7   28   0.596   0.223  -0.001
    1  MOL   H8   29  -0.253   0.252   0.004
    1  MOL   H9   30  -0.432  -0.141  -0.002
    1  MOL  H10   31  -0.483   0.344   0.001
    1  MOL  H11   32  -0.675   0.185  -0.004
   26.35600    15.21400     0.15000
