CPPF_RESP2_GMX.gro created by acpype (v: 2023.10.27) on Fri Apr 17 15:29:26 2026
 32
    1  UNL   CL    1   0.348   0.366   0.001
    1  UNL    O    2   0.070  -0.072   0.001
    1  UNL   O1    3  -0.241  -0.239  -0.000
    1  UNL    N    4  -0.192  -0.009   0.003
    1  UNL   N1    5  -0.559   0.014  -0.003
    1  UNL    C    6   0.194  -0.126  -0.000
    1  UNL   C1    7   0.303  -0.031  -0.000
    1  UNL   C2    8  -0.017  -0.176   0.001
    1  UNL   C3    9   0.188  -0.263  -0.001
    1  UNL   C4   10   0.050  -0.296   0.000
    1  UNL   C5   11   0.276   0.105   0.000
    1  UNL   C6   12   0.435  -0.076  -0.001
    1  UNL   C7   13  -0.157  -0.146   0.002
    1  UNL   C8   14  -0.320   0.047   0.001
    1  UNL   C9   15   0.381   0.197  -0.000
    1  UNL  C10   16   0.540   0.015  -0.002
    1  UNL  C11   17   0.513   0.152  -0.001
    1  UNL  C12   18  -0.338   0.185   0.002
    1  UNL  C13   19  -0.433  -0.034  -0.001
    1  UNL  C14   20  -0.467   0.237   0.000
    1  UNL  C15   21  -0.573   0.149  -0.002
    1  UNL    H   22   0.271  -0.333  -0.001
    1  UNL   H1   23   0.006  -0.395   0.000
    1  UNL   H2   24   0.174   0.143   0.001
    1  UNL   H3   25   0.459  -0.182  -0.002
    1  UNL   H4   26  -0.116   0.058   0.004
    1  UNL   H5   27   0.643  -0.020  -0.002
    1  UNL   H6   28   0.596   0.223  -0.001
    1  UNL   H7   29  -0.253   0.252   0.004
    1  UNL   H8   30  -0.432  -0.141  -0.002
    1  UNL   H9   31  -0.483   0.344   0.001
    1  UNL  H10   32  -0.675   0.185  -0.004
   26.35600    15.21400     0.15000
